My customized data file

     14150  atoms
     14100  bonds
     14050  angles
         0  dihedrals
         0  impropers

         4  atom types
         2  bond types
         2  angle types

       -10          10 xlo xhi
       -10          10 ylo yhi
      -130         130 zlo zhi

Masses

       1     8.3 
       2     8.3 
       3     8.3 
       4     8.3 

Atoms

       1       1       4       0            7.2           3.78           -180
       2       1       1       0            7.2           3.78           -179
       3       1       1       0            7.2           3.78           -178
       4       1       1       0            7.2           3.78           -177
       5       1       1       0            7.2           3.78           -176
       6       1       1       0            7.2           3.78           -175
       7       1       1       0            7.2           3.78           -174
       8       1       1       0            7.2           3.78           -173
       9       1       1       0            7.2           3.78           -172
      10       1       1       0            7.2           3.78           -171
      11       1       1       0            7.2           3.78           -170
      12       1       1       0            7.2           3.78           -169
      13       1       1       0            7.2           3.78           -168
      14       1       1       0            7.2           3.78           -167
      15       1       1       0            7.2           3.78           -166
      16       1       1       0            7.2           3.78           -165
      17       1       1       0            7.2           3.78           -164
      18       1       1       0            7.2           3.78           -163
      19       1       1       0            7.2           3.78           -162
      20       1       1       0            7.2           3.78           -161
      21       1       1       0            7.2           3.78           -160
      22       1       1       0            7.2           3.78           -159
      23       1       1       0            7.2           3.78           -158
      24       1       1       0            7.2           3.78           -157
      25       1       1       0            7.2           3.78           -156
      26       1       1       0            7.2           3.78           -155
      27       1       1       0            7.2           3.78           -154
      28       1       1       0            7.2           3.78           -153
      29       1       1       0            7.2           3.78           -152
      30       1       1       0            7.2           3.78           -151
      31       1       1       0            7.2           3.78           -150
      32       1       1       0            7.2           3.78           -149
      33       1       1       0            7.2           3.78           -148
      34       1       1       0            7.2           3.78           -147
      35       1       1       0            7.2           3.78           -146
      36       1       1       0            7.2           3.78           -145
      37       1       1       0            7.2           3.78           -144
      38       1       1       0            7.2           3.78           -143
      39       1       1       0            7.2           3.78           -142
      40       1       1       0            7.2           3.78           -141
      41       1       1       0            7.2           3.78           -140
      42       1       1       0            7.2           3.78           -139
      43       1       1       0            7.2           3.78           -138
      44       1       1       0            7.2           3.78           -137
      45       1       1       0            7.2           3.78           -136
      46       1       1       0            7.2           3.78           -135
      47       1       1       0            7.2           3.78           -134
      48       1       1       0            7.2           3.78           -133
      49       1       1       0            7.2           3.78           -132
      50       1       1       0            7.2           3.78           -131
      51       1       1       0            7.2           3.78           -130
      52       1       1       0            7.2           3.78           -129
      53       1       1       0            7.2           3.78           -128
      54       1       1       0            7.2           3.78           -127
      55       1       1       0            7.2           3.78           -126
      56       1       1       0            7.2           3.78           -125
      57       1       1       0            7.2           3.78           -124
      58       1       1       0            7.2           3.78           -123
      59       1       1       0            7.2           3.78           -122
      60       1       1       0            7.2           3.78           -121
      61       1       1       0            7.2           3.78           -120
      62       1       1       0            7.2           3.78           -119
      63       1       1       0            7.2           3.78           -118
      64       1       1       0            7.2           3.78           -117
      65       1       1       0            7.2           3.78           -116
      66       1       1       0            7.2           3.78           -115
      67       1       1       0            7.2           3.78           -114
      68       1       1       0            7.2           3.78           -113
      69       1       1       0            7.2           3.78           -112
      70       1       1       0            7.2           3.78           -111
      71       1       1       0            7.2           3.78           -110
      72       1       1       0            7.2           3.78           -109
      73       1       1       0            7.2           3.78           -108
      74       1       1       0            7.2           3.78           -107
      75       1       1       0            7.2           3.78           -106
      76       1       1       0            7.2           3.78           -105
      77       1       1       0            7.2           3.78           -104
      78       1       1       0            7.2           3.78           -103
      79       1       1       0            7.2           3.78           -102
      80       1       1       0            7.2           3.78           -101
      81       1       1       0            7.2           3.78           -100
      82       1       1       0            7.2           3.78            -99
      83       1       1       0            7.2           3.78            -98
      84       1       1       0            7.2           3.78            -97
      85       1       1       0            7.2           3.78            -96
      86       1       1       0            7.2           3.78            -95
      87       1       1       0            7.2           3.78            -94
      88       1       1       0            7.2           3.78            -93
      89       1       1       0            7.2           3.78            -92
      90       1       1       0            7.2           3.78            -91
      91       1       1       0            7.2           3.78            -90
      92       1       1       0            7.2           3.78            -89
      93       1       1       0            7.2           3.78            -88
      94       1       1       0            7.2           3.78            -87
      95       1       1       0            7.2           3.78            -86
      96       1       1       0            7.2           3.78            -85
      97       1       1       0            7.2           3.78            -84
      98       1       1       0            7.2           3.78            -83
      99       1       1       0            7.2           3.78            -82
     100       1       1       0            7.2           3.78            -81
     101       1       1       0            7.2           3.78            -80
     102       1       1       0            7.2           3.78            -79
     103       1       1       0            7.2           3.78            -78
     104       1       1       0            7.2           3.78            -77
     105       1       1       0            7.2           3.78            -76
     106       1       1       0            7.2           3.78            -75
     107       1       1       0            7.2           3.78            -74
     108       1       1       0            7.2           3.78            -73
     109       1       1       0            7.2           3.78            -72
     110       1       1       0            7.2           3.78            -71
     111       1       1       0            7.2           3.78            -70
     112       1       1       0            7.2           3.78            -69
     113       1       1       0            7.2           3.78            -68
     114       1       1       0            7.2           3.78            -67
     115       1       1       0            7.2           3.78            -66
     116       1       1       0            7.2           3.78            -65
     117       1       1       0            7.2           3.78            -64
     118       1       1       0            7.2           3.78            -63
     119       1       1       0            7.2           3.78            -62
     120       1       1       0            7.2           3.78            -61
     121       1       1       0            7.2           3.78            -60
     122       1       1       0            7.2           3.78            -59
     123       1       1       0            7.2           3.78            -58
     124       1       1       0            7.2           3.78            -57
     125       1       1       0            7.2           3.78            -56
     126       1       1       0            7.2           3.78            -55
     127       1       1       0            7.2           3.78            -54
     128       1       1       0            7.2           3.78            -53
     129       1       1       0            7.2           3.78            -52
     130       1       1       0            7.2           3.78            -51
     131       1       1       0            7.2           3.78            -50
     132       1       1       0            7.2           3.78            -49
     133       1       1       0            7.2           3.78            -48
     134       1       1       0            7.2           3.78            -47
     135       1       1       0            7.2           3.78            -46
     136       1       1       0            7.2           3.78            -45
     137       1       1       0            7.2           3.78            -44
     138       1       1       0            7.2           3.78            -43
     139       1       1       0            7.2           3.78            -42
     140       1       1       0            7.2           3.78            -41
     141       1       1       0            7.2           3.78            -40
     142       1       1       0            7.2           3.78            -39
     143       1       1       0            7.2           3.78            -38
     144       1       1       0            7.2           3.78            -37
     145       1       1       0            7.2           3.78            -36
     146       1       1       0            7.2           3.78            -35
     147       1       1       0            7.2           3.78            -34
     148       1       1       0            7.2           3.78            -33
     149       1       1       0            7.2           3.78            -32
     150       1       1       0            7.2           3.78            -31
     151       1       1       0            7.2           3.78            -30
     152       1       1       0            7.2           3.78            -29
     153       1       1       0            7.2           3.78            -28
     154       1       1       0            7.2           3.78            -27
     155       1       1       0            7.2           3.78            -26
     156       1       1       0            7.2           3.78            -25
     157       1       1       0            7.2           3.78            -24
     158       1       1       0            7.2           3.78            -23
     159       1       1       0            7.2           3.78            -22
     160       1       1       0            7.2           3.78            -21
     161       1       1       0            7.2           3.78            -20
     162       1       1       0            7.2           3.78            -19
     163       1       1       0            7.2           3.78            -18
     164       1       1       0            7.2           3.78            -17
     165       1       1       0            7.2           3.78            -16
     166       1       1       0            7.2           3.78            -15
     167       1       1       0            7.2           3.78            -14
     168       1       1       0            7.2           3.78            -13
     169       1       1       0            7.2           3.78            -12
     170       1       1       0            7.2           3.78            -11
     171       1       1       0            7.2           3.78            -10
     172       1       1       0            7.2           3.78             -9
     173       1       1       0            7.2           3.78             -8
     174       1       1       0            7.2           3.78             -7
     175       1       1       0            7.2           3.78             -6
     176       1       1       0            7.2           3.78             -5
     177       1       2       0            7.2           3.78         -4.293
     178       1       2       0            7.2           3.78       -3.58545
     179       1       2       0            7.2           3.78       -2.87791
     180       1       2       0            7.2           3.78       -2.17036
     181       1       2       0            7.2           3.78       -1.46281
     182       1       2       0            7.2           3.78      -0.755264
     183       1       2       0            7.2           3.78      -0.047717
     184       1       2       0            7.2           3.78        0.65983
     185       1       2       0            7.2           3.78        1.36738
     186       1       2       0            7.2           3.78        2.07492
     187       1       2       0            7.2           3.78        2.78247
     188       1       2       0            7.2           3.78        3.49002
     189       1       2       0            7.2           3.78        4.19757
     190       1       2       0            7.2           3.78        4.90511
     191       1       2       0            7.2           3.78        5.61266
     192       1       2       0            7.2           3.78        6.32021
     193       1       2       0            7.2           3.78        7.02775
     194       1       2       0            7.2           3.78         7.7353
     195       1       2       0            7.2           3.78        8.44285
     196       1       2       0            7.2           3.78         9.1504
     197       1       2       0            7.2           3.78        9.85794
     198       1       2       0            7.2           3.78        10.5655
     199       1       2       0            7.2           3.78         11.273
     200       1       2       0            7.2           3.78        11.9806
     201       1       2       0            7.2           3.78        12.6881
     202       1       2       0            7.2           3.78        13.3957
     203       1       2       0            7.2           3.78        14.1032
     204       1       2       0            7.2           3.78        14.8108
     205       1       2       0            7.2           3.78        15.5183
     206       1       2       0            7.2           3.78        16.2259
     207       1       2       0            7.2           3.78        16.9334
     208       1       2       0            7.2           3.78         17.641
     209       1       2       0            7.2           3.78        18.3485
     210       1       2       0            7.2           3.78        19.0561
     211       1       2       0            7.2           3.78        19.7636
     212       1       2       0            7.2           3.78        20.4712
     213       1       2       0            7.2           3.78        21.1787
     214       1       2       0            7.2           3.78        21.8862
     215       1       2       0            7.2           3.78        22.5938
     216       1       2       0            7.2           3.78        23.3013
     217       1       2       0            7.2           3.78        24.0089
     218       1       2       0            7.2           3.78        24.7164
     219       1       2       0            7.2           3.78         25.424
     220       1       2       0            7.2           3.78        26.1315
     221       1       2       0            7.2           3.78        26.8391
     222       1       2       0            7.2           3.78        27.5466
     223       1       2       0            7.2           3.78        28.2542
     224       1       2       0            7.2           3.78        28.9617
     225       1       2       0            7.2           3.78        29.6693
     226       1       2       0            7.2           3.78        30.3768
     227       1       2       0            7.2           3.78        31.0844
     228       1       2       0            7.2           3.78        31.7919
     229       1       2       0            7.2           3.78        32.4995
     230       1       2       0            7.2           3.78         33.207
     231       1       2       0            7.2           3.78        33.9145
     232       1       2       0            7.2           3.78        34.6221
     233       1       2       0            7.2           3.78        35.3296
     234       1       2       0            7.2           3.78        36.0372
     235       1       2       0            7.2           3.78        36.7447
     236       1       2       0            7.2           3.78        37.4523
     237       1       2       0            7.2           3.78        38.1598
     238       1       2       0            7.2           3.78        38.8674
     239       1       2       0            7.2           3.78        39.5749
     240       1       2       0            7.2           3.78        40.2825
     241       1       2       0            7.2           3.78          40.99
     242       1       2       0            7.2           3.78        41.6976
     243       1       2       0            7.2           3.78        42.4051
     244       1       2       0            7.2           3.78        43.1127
     245       1       2       0            7.2           3.78        43.8202
     246       1       2       0            7.2           3.78        44.5278
     247       1       2       0            7.2           3.78        45.2353
     248       1       2       0            7.2           3.78        45.9428
     249       1       2       0            7.2           3.78        46.6504
     250       1       2       0            7.2           3.78        47.3579
     251       1       2       0            7.2           3.78        48.0655
     252       1       2       0            7.2           3.78         48.773
     253       1       2       0            7.2           3.78        49.4806
     254       1       2       0            7.2           3.78        50.1881
     255       1       2       0            7.2           3.78        50.8957
     256       1       2       0            7.2           3.78        51.6032
     257       1       2       0            7.2           3.78        52.3108
     258       1       2       0            7.2           3.78        53.0183
     259       1       2       0            7.2           3.78        53.7259
     260       1       2       0            7.2           3.78        54.4334
     261       1       2       0            7.2           3.78         55.141
     262       1       2       0            7.2           3.78        55.8485
     263       1       2       0            7.2           3.78        56.5561
     264       1       2       0            7.2           3.78        57.2636
     265       1       2       0            7.2           3.78        57.9712
     266       1       2       0            7.2           3.78        58.6787
     267       1       2       0            7.2           3.78        59.3862
     268       1       2       0            7.2           3.78        60.0938
     269       1       2       0            7.2           3.78        60.8013
     270       1       2       0            7.2           3.78        61.5089
     271       1       2       0            7.2           3.78        62.2164
     272       1       2       0            7.2           3.78         62.924
     273       1       2       0            7.2           3.78        63.6315
     274       1       2       0            7.2           3.78        64.3391
     275       1       2       0            7.2           3.78        65.0466
     276       1       2       0            7.2           3.78        65.7542
     277       1       2       0            7.2           3.78        66.4617
     278       1       2       0            7.2           3.78        67.1693
     279       1       2       0            7.2           3.78        67.8768
     280       1       2       0            7.2           3.78        68.5844
     281       1       2       0            7.2           3.78        69.2919
     282       1       2       0            7.2           3.78        69.9995
     283       1       2       0            7.2           3.78         70.707
     284       2       3       0          -1.62           4.86            -71
     285       2       1       0          -1.62           4.86            -70
     286       2       1       0          -1.62           4.86            -69
     287       2       1       0          -1.62           4.86            -68
     288       2       1       0          -1.62           4.86            -67
     289       2       1       0          -1.62           4.86            -66
     290       2       1       0          -1.62           4.86            -65
     291       2       1       0          -1.62           4.86            -64
     292       2       1       0          -1.62           4.86            -63
     293       2       1       0          -1.62           4.86            -62
     294       2       1       0          -1.62           4.86            -61
     295       2       1       0          -1.62           4.86            -60
     296       2       1       0          -1.62           4.86            -59
     297       2       1       0          -1.62           4.86            -58
     298       2       1       0          -1.62           4.86            -57
     299       2       1       0          -1.62           4.86            -56
     300       2       1       0          -1.62           4.86            -55
     301       2       1       0          -1.62           4.86            -54
     302       2       1       0          -1.62           4.86            -53
     303       2       1       0          -1.62           4.86            -52
     304       2       1       0          -1.62           4.86            -51
     305       2       1       0          -1.62           4.86            -50
     306       2       1       0          -1.62           4.86            -49
     307       2       1       0          -1.62           4.86            -48
     308       2       1       0          -1.62           4.86            -47
     309       2       1       0          -1.62           4.86            -46
     310       2       1       0          -1.62           4.86            -45
     311       2       1       0          -1.62           4.86            -44
     312       2       1       0          -1.62           4.86            -43
     313       2       1       0          -1.62           4.86            -42
     314       2       1       0          -1.62           4.86            -41
     315       2       1       0          -1.62           4.86            -40
     316       2       1       0          -1.62           4.86            -39
     317       2       1       0          -1.62           4.86            -38
     318       2       1       0          -1.62           4.86            -37
     319       2       1       0          -1.62           4.86            -36
     320       2       1       0          -1.62           4.86            -35
     321       2       1       0          -1.62           4.86            -34
     322       2       1       0          -1.62           4.86            -33
     323       2       1       0          -1.62           4.86            -32
     324       2       1       0          -1.62           4.86            -31
     325       2       1       0          -1.62           4.86            -30
     326       2       1       0          -1.62           4.86            -29
     327       2       1       0          -1.62           4.86            -28
     328       2       1       0          -1.62           4.86            -27
     329       2       1       0          -1.62           4.86            -26
     330       2       1       0          -1.62           4.86            -25
     331       2       1       0          -1.62           4.86            -24
     332       2       1       0          -1.62           4.86            -23
     333       2       1       0          -1.62           4.86            -22
     334       2       1       0          -1.62           4.86            -21
     335       2       1       0          -1.62           4.86            -20
     336       2       1       0          -1.62           4.86            -19
     337       2       1       0          -1.62           4.86            -18
     338       2       1       0          -1.62           4.86            -17
     339       2       1       0          -1.62           4.86            -16
     340       2       1       0          -1.62           4.86            -15
     341       2       1       0          -1.62           4.86            -14
     342       2       1       0          -1.62           4.86            -13
     343       2       1       0          -1.62           4.86            -12
     344       2       1       0          -1.62           4.86            -11
     345       2       1       0          -1.62           4.86            -10
     346       2       1       0          -1.62           4.86             -9
     347       2       1       0          -1.62           4.86             -8
     348       2       1       0          -1.62           4.86             -7
     349       2       1       0          -1.62           4.86             -6
     350       2       1       0          -1.62           4.86             -5
     351       2       1       0          -1.62           4.86             -4
     352       2       1       0          -1.62           4.86             -3
     353       2       1       0          -1.62           4.86             -2
     354       2       1       0          -1.62           4.86             -1
     355       2       1       0          -1.62           4.86              0
     356       2       1       0          -1.62           4.86              1
     357       2       1       0          -1.62           4.86              2
     358       2       1       0          -1.62           4.86              3
     359       2       1       0          -1.62           4.86              4
     360       2       1       0          -1.62           4.86              5
     361       2       1       0          -1.62           4.86              6
     362       2       1       0          -1.62           4.86              7
     363       2       1       0          -1.62           4.86              8
     364       2       1       0          -1.62           4.86              9
     365       2       1       0          -1.62           4.86             10
     366       2       1       0          -1.62           4.86             11
     367       2       1       0          -1.62           4.86             12
     368       2       1       0          -1.62           4.86             13
     369       2       1       0          -1.62           4.86             14
     370       2       1       0          -1.62           4.86             15
     371       2       1       0          -1.62           4.86             16
     372       2       1       0          -1.62           4.86             17
     373       2       1       0          -1.62           4.86             18
     374       2       1       0          -1.62           4.86             19